! TOUCHSTONE file generated by CST DESIGN STUDIO
! Date and time: Wed Oct  5 17:41:29 2022
! Project name: C:\Users\posit\AppData\Local\Temp\CSTDE1\Temp\DE4\Untitled_0.cst
! Tree item: Tasks\SPara1\S-Parameters
! Header version: 2018
! Port assignment regex: !\s*Touchstone port\s*([0-9]+)\s*=\s*(CST MWS port|CST DS port)\s*([0-9]+|Zmin|Zmax)\s*\(\"(.*)\"\)(\s*mode\s*([0-9]+))?.*
! Touchstone port assignment:
! Touchstone port 1 = CST DS port 1 ("")
! Touchstone port 2 = CST DS port 2 ("")
# GHz S RI R 50
0.01                 5.64168e-05      0.00129378         0.999271      -0.0364242         0.999271      -0.0364242      4.32945e-05      0.00129428
0.02                 0.000219972      0.00257916         0.997214      -0.0727951         0.997214      -0.0727951      0.000167617      0.00258309
0.03                 0.000489746      0.00384817         0.993832       -0.109064         0.993832       -0.109064      0.000372441       0.0038613
0.04                 0.000864241      0.00509296         0.989129       -0.145183         0.989129       -0.145183      0.000656908      0.00512384
0.05                  0.00134139      0.00630578         0.983114       -0.181103         0.983114       -0.181103       0.00101984      0.00636572
0.06                  0.00191856      0.00747906         0.975793       -0.216777         0.975793       -0.216777       0.00145974        0.007582
0.07                  0.00259259      0.00860546         0.967176       -0.252157         0.967176       -0.252157        0.0019748      0.00876791
0.08                  0.00335977      0.00967787         0.957276       -0.287196         0.957276       -0.287196        0.0025629      0.00991875
0.09                   0.0042159       0.0106895         0.946106       -0.321847         0.946106       -0.321847       0.00322163         0.01103
0.1                   0.00515628       0.0116338         0.933682       -0.356065         0.933682       -0.356065       0.00394831       0.0120973
0.11                  0.00617576       0.0125047         0.920019       -0.389803         0.920019       -0.389803       0.00473997       0.0131165
0.12                  0.00726877       0.0132965         0.905137       -0.423017         0.905137       -0.423017       0.00559339       0.0140836
0.13                  0.00842931       0.0140039         0.889057       -0.455663         0.889057       -0.455663       0.00650513        0.014995
0.14                  0.00965103       0.0146219         0.871799       -0.487697         0.871799       -0.487697       0.00747147       0.0158469
0.15                   0.0109272       0.0151463         0.853387       -0.519077         0.853387       -0.519077        0.0084885       0.0166363
0.16                   0.0122509       0.0155732         0.833846       -0.549762         0.833846       -0.549762       0.00955215       0.0173601
0.17                   0.0136149       0.0158991         0.813202       -0.579711         0.813202       -0.579711        0.0106581       0.0180155
0.18                   0.0150115       0.0161213         0.791484       -0.608884         0.791484       -0.608884         0.011802       0.0186001
0.19                   0.0164334       0.0162375          0.76872       -0.637242          0.76872       -0.637242        0.0129792       0.0191119
0.2                    0.0178724       0.0162461         0.744942        -0.66475         0.744942        -0.66475        0.0141851       0.0195488
0.21                   0.0193209       0.0161458          0.72018       -0.691369          0.72018       -0.691369        0.0154148       0.0199094
0.22                   0.0207708       0.0159361         0.694469       -0.717066         0.694469       -0.717066        0.0166635       0.0201924
0.23                   0.0222141       0.0156172         0.667842       -0.741806         0.667842       -0.741806        0.0179262       0.0203969
0.24                    0.023643       0.0151895         0.640337       -0.765557         0.640337       -0.765557         0.019198       0.0205224
0.25                   0.0250494       0.0146543         0.611988       -0.788287         0.611988       -0.788287         0.020474       0.0205684
0.26                   0.0264256       0.0140133         0.582834       -0.809968         0.582834       -0.809968        0.0217491       0.0205351
0.27                    0.027764       0.0132688         0.552915       -0.830571         0.552915       -0.830571        0.0230184       0.0204228
0.28                   0.0290572       0.0124238          0.52227       -0.850069          0.52227       -0.850069        0.0242769       0.0202321
0.29                   0.0302978       0.0114817         0.490939       -0.868436         0.490939       -0.868436        0.0255199        0.019964
0.3                    0.0314791       0.0104462         0.458966       -0.885649         0.458966       -0.885649        0.0267426       0.0196197
0.31                   0.0325943      0.00932194         0.426391       -0.901686         0.426391       -0.901686        0.0279402       0.0192009
0.32                   0.0336371       0.0081137         0.393259       -0.916525         0.393259       -0.916525        0.0291084       0.0187093
0.33                   0.0346017      0.00682684         0.359613       -0.930147         0.359613       -0.930147        0.0302427        0.018147
0.34                   0.0354825      0.00546707         0.325498       -0.942535         0.325498       -0.942535        0.0313389       0.0175165
0.35                   0.0362743      0.00404052         0.290959       -0.953673         0.290959       -0.953673        0.0323928       0.0168204
0.36                   0.0369727      0.00255366         0.256042       -0.963546         0.256042       -0.963546        0.0334006       0.0160615
0.37                   0.0375733       0.0010133         0.220793       -0.972143         0.220793       -0.972143        0.0343585       0.0152429
0.38                   0.0380727    -0.000573482         0.185259       -0.979451         0.185259       -0.979451        0.0352632        0.014368
0.39                   0.0384676     -0.00219938         0.149486       -0.985462         0.149486       -0.985462        0.0361114       0.0134403
0.4                    0.0387555     -0.00385686         0.113522       -0.990169         0.113522       -0.990169        0.0369001       0.0124633
0.41                   0.0389343     -0.00553824        0.0774151       -0.993564        0.0774151       -0.993564        0.0376265       0.0114411
0.42                   0.0390027      -0.0072357        0.0412117       -0.995645        0.0412117       -0.995645         0.038288       0.0103776
0.43                   0.0389596     -0.00894133       0.00495982       -0.996409       0.00495982       -0.996409        0.0388825       0.0092769
0.44                   0.0388048      -0.0106472       -0.0312924       -0.995854       -0.0312924       -0.995854        0.0394078      0.00814332
0.45                   0.0385387      -0.0123453       -0.0674976       -0.993983       -0.0674976       -0.993983        0.0398625      0.00698118
0.46                   0.0381618      -0.0140279        -0.103608       -0.990797        -0.103608       -0.990797        0.0402448      0.00579492
0.47                   0.0376757       -0.015687        -0.139576       -0.986302        -0.139576       -0.986302        0.0405538      0.00458902
0.48                   0.0370824       -0.017315        -0.175354       -0.980503        -0.175354       -0.980503        0.0407885      0.00336803
0.49                   0.0363844      -0.0189043        -0.210896       -0.973408        -0.210896       -0.973408        0.0409484       0.0021365
0.5                    0.0355847      -0.0204476        -0.246154       -0.965027        -0.246154       -0.965027         0.041033      0.00089901
0.51                   0.0346869      -0.0219379        -0.281082        -0.95537        -0.281082        -0.95537        0.0410425    -0.000339877
0.52                   0.0336951      -0.0233682        -0.315634       -0.944452        -0.315634       -0.944452        0.0409769     -0.00157563
0.53                   0.0326139      -0.0247322        -0.349765       -0.932285        -0.349765       -0.932285        0.0408369     -0.00280373
0.54                   0.0314483      -0.0260237         -0.38343       -0.918887         -0.38343       -0.918887        0.0406231     -0.00401975
0.55                   0.0302038      -0.0272369        -0.416584       -0.904275        -0.416584       -0.904275        0.0403367     -0.00521933
0.56                   0.0288862      -0.0283665        -0.449184       -0.888468        -0.449184       -0.888468        0.0399789     -0.00639819
0.57                   0.0275017      -0.0294076        -0.481187       -0.871488        -0.481187       -0.871488        0.0395512     -0.00755213
0.58                   0.0260571      -0.0303557         -0.51255       -0.853356         -0.51255       -0.853356        0.0390554     -0.00867714
0.59                   0.0245589      -0.0312068        -0.543233       -0.834096        -0.543233       -0.834096        0.0384936     -0.00976923
0.6                    0.0230146      -0.0319576        -0.573195       -0.813735        -0.573195       -0.813735        0.0378679      -0.0108247
0.61                   0.0214314      -0.0326051        -0.602396       -0.792298        -0.602396       -0.792298        0.0371808      -0.0118398
0.62                   0.0198169       -0.033147        -0.630798       -0.769813        -0.630798       -0.769813        0.0364348      -0.0128112
0.63                   0.0181788      -0.0335814        -0.658363       -0.746312        -0.658363       -0.746312         0.035633      -0.0137355
0.64                   0.0165249      -0.0339071        -0.685055       -0.721823        -0.685055       -0.721823        0.0347781      -0.0146096
0.65                   0.0148632      -0.0341234        -0.710839       -0.696381        -0.710839       -0.696381        0.0338734      -0.0154307
0.66                   0.0132015      -0.0342302         -0.73568       -0.670018         -0.73568       -0.670018        0.0329222      -0.0161959
0.67                   0.0115479       -0.034228        -0.759546       -0.642768        -0.759546       -0.642768        0.0319279      -0.0169028
0.68                  0.00991002      -0.0341178        -0.782405       -0.614669        -0.782405       -0.614669        0.0308941      -0.0175492
0.69                  0.00829578      -0.0339012        -0.804227       -0.585756        -0.804227       -0.585756        0.0298244      -0.0181328
0.7                   0.00671274      -0.0335805        -0.824982       -0.556069        -0.824982       -0.556069        0.0287227       -0.018652
0.71                  0.00516835      -0.0331583        -0.844643       -0.525646        -0.844643       -0.525646        0.0275928      -0.0191049
0.72                  0.00366983      -0.0326379        -0.863185       -0.494527        -0.863185       -0.494527        0.0264385      -0.0194903
0.73                  0.00222413       -0.032023        -0.880581       -0.462754        -0.880581       -0.462754        0.0252639       -0.019807
0.74                 0.000837972       -0.031318         -0.89681       -0.430368         -0.89681       -0.430368        0.0240731       -0.020054
0.75                -0.000482345      -0.0305276        -0.911849       -0.397413        -0.911849       -0.397413          0.02287      -0.0202306
0.76                 -0.00173083       -0.029657        -0.925678       -0.363931        -0.925678       -0.363931        0.0216587      -0.0203363
0.77                 -0.00290189      -0.0287118        -0.938279       -0.329968        -0.938279       -0.329968        0.0204434      -0.0203709
0.78                 -0.00399037       -0.027698        -0.949635       -0.295569        -0.949635       -0.295569         0.019228      -0.0203344
0.79                 -0.00499156      -0.0266219        -0.959731       -0.260778        -0.959731       -0.260778        0.0180167      -0.0202269
0.8                  -0.00590122      -0.0254903        -0.968553       -0.225642        -0.968553       -0.225642        0.0168135      -0.0200489
0.81                 -0.00671561      -0.0243102        -0.976089       -0.190207        -0.976089       -0.190207        0.0156223       -0.019801
0.82                 -0.00743153      -0.0230888        -0.982329       -0.154522        -0.982329       -0.154522        0.0144471      -0.0194841
0.83                 -0.00804628      -0.0218335        -0.987265       -0.118632        -0.987265       -0.118632        0.0132917      -0.0190992
0.84                 -0.00855774      -0.0205519         -0.99089      -0.0825859         -0.99089      -0.0825859        0.0121599      -0.0186476
0.85                 -0.00896435      -0.0192519        -0.993199      -0.0464313        -0.993199      -0.0464313        0.0110554      -0.0181308
0.86                  -0.0092651      -0.0179412        -0.994188      -0.0102168        -0.994188      -0.0102168       0.00998183      -0.0175504
0.87                 -0.00945958      -0.0166279        -0.993856         0.02601        -0.993856         0.02601        0.0089427      -0.0169082
0.88                 -0.00954793      -0.0153198        -0.992205       0.0622006        -0.992205       0.0622006       0.00794142      -0.0162064
0.89                 -0.00953089      -0.0140247        -0.989234       0.0983068        -0.989234       0.0983068       0.00698124       -0.015447
0.9                  -0.00940978      -0.0127506        -0.984949        0.134281        -0.984949        0.134281       0.00606532      -0.0146325
0.91                 -0.00918645       -0.011505        -0.979355        0.170074        -0.979355        0.170074       0.00519668      -0.0137653
0.92                 -0.00886335      -0.0102956         -0.97246         0.20564         -0.97246         0.20564       0.00437821      -0.0128482
0.93                 -0.00844344     -0.00912964        -0.964272        0.240929        -0.964272        0.240929       0.00361264       -0.011884
0.94                 -0.00793023     -0.00801428        -0.954803        0.275896        -0.954803        0.275896       0.00290254      -0.0108756
0.95                 -0.00732772     -0.00695631        -0.944064        0.310494        -0.944064        0.310494       0.00225034     -0.00982612
0.96                 -0.00664043     -0.00596228        -0.932071        0.344677        -0.932071        0.344677       0.00165829     -0.00873878
0.97                 -0.00587329     -0.00503833        -0.918838        0.378398        -0.918838        0.378398       0.00112849     -0.00761685
0.98                 -0.00503172     -0.00419026        -0.904385        0.411614        -0.904385        0.411614      0.000662863     -0.00646379
0.99                 -0.00412151     -0.00342346         -0.88873        0.444279         -0.88873        0.444279       0.00026314     -0.00528311
1                    -0.00314888      -0.0027429        -0.871894        0.476349        -0.871894        0.476349     -6.91218e-05     -0.00407846
1.01                 -0.00212032     -0.00215301        -0.853899        0.507783        -0.853899        0.507783     -0.000332533     -0.00285346
1.02                 -0.00104268     -0.00165781         -0.83477        0.538539         -0.83477        0.538539     -0.000525911     -0.00161192
1.03                 7.68882e-05      -0.0012608        -0.814532        0.568574        -0.814532        0.568574     -0.000648275     -0.00035769
1.04                   0.0012311    -0.000964881        -0.793213        0.597849        -0.793213        0.597849     -0.000698797     0.000905413
1.05                  0.00241235    -0.000772519         -0.77084        0.626325         -0.77084        0.626325     -0.000676903      0.00217339
1.06                  0.00361301     -0.00068551        -0.747445        0.653965        -0.747445        0.653965     -0.000582148      0.00344234
1.07                  0.00482523    -0.000705189        -0.723057        0.680731        -0.723057        0.680731     -0.000414365      0.00470823
1.08                  0.00604112    -0.000832222        -0.697711        0.706587        -0.697711        0.706587     -0.000173513      0.00596706
1.09                  0.00725273     -0.00106679        -0.671439        0.731499        -0.671439        0.731499      0.000140154      0.00721473
1.1                   0.00845224      -0.0014084        -0.644278        0.755433        -0.644278        0.755433      0.000526288      0.00844731
1.11                  0.00963171     -0.00185607        -0.616263        0.778359        -0.616263        0.778359      0.000984206      0.00966068
1.12                   0.0107834      -0.0024082        -0.587432        0.800246        -0.587432        0.800246       0.00151312       0.0108509
1.13                   0.0118998      -0.0030626        -0.557824        0.821064        -0.557824        0.821064       0.00211202       0.0120139
1.14                   0.0129733     -0.00381663        -0.527479        0.840786        -0.527479        0.840786        0.0027796       0.0131458
1.15                   0.0139968     -0.00466702        -0.496436        0.859386        -0.496436        0.859386       0.00351445       0.0142427
1.16                   0.0149633     -0.00561001        -0.464739        0.876838        -0.464739        0.876838       0.00431488       0.0153006
1.17                   0.0158662     -0.00664135        -0.432428        0.893121        -0.432428        0.893121       0.00517909       0.0163159
1.18                    0.016699     -0.00775632        -0.399549        0.908213        -0.399549        0.908213        0.0061049       0.0172848
1.19                   0.0174558     -0.00894976        -0.366143        0.922094        -0.366143        0.922094       0.00709006       0.0182036
1.2                     0.018131       -0.010216        -0.332257        0.934744        -0.332257        0.934744       0.00813209       0.0190688
1.21                   0.0187194      -0.0115492        -0.297936        0.946149        -0.297936        0.946149       0.00922828        0.019877
1.22                   0.0192164      -0.0129428        -0.263226        0.956293        -0.263226        0.956293        0.0103757       0.0206248
1.23                   0.0196176      -0.0143903        -0.228172        0.965164        -0.228172        0.965164        0.0115714       0.0213091
1.24                   0.0199194      -0.0158846        -0.192823        0.972748        -0.192823        0.972748        0.0128119       0.0219268
1.25                   0.0201186      -0.0174186        -0.157224        0.979038        -0.157224        0.979038        0.0140939        0.022475
1.26                   0.0202123      -0.0189848        -0.121424        0.984024        -0.121424        0.984024        0.0154136       0.0229509
1.27                   0.0201986      -0.0205756       -0.0854706        0.987701       -0.0854706        0.987701        0.0167672        0.023352
1.28                   0.0200758      -0.0221833       -0.0494114        0.990064       -0.0494114        0.990064        0.0181508       0.0236759
1.29                    0.019843         -0.0238       -0.0132944         0.99111       -0.0132944         0.99111        0.0195601       0.0239204
1.3                    0.0194996      -0.0254178        0.0228318        0.990839        0.0228318        0.990839        0.0209907       0.0240835
1.31                   0.0190458       -0.027029        0.0589197        0.989252        0.0589197        0.989252        0.0224383       0.0241634
1.32                   0.0184823      -0.0286254        0.0949212         0.98635        0.0949212         0.98635        0.0238981       0.0241586
1.33                   0.0178104      -0.0301995         0.130788        0.982139         0.130788        0.982139        0.0253655       0.0240678
1.34                   0.0170321      -0.0317436         0.166473        0.976624         0.166473        0.976624        0.0268356         0.02389
1.35                   0.0161495        -0.03325         0.201928        0.969814         0.201928        0.969814        0.0283033       0.0236242
1.36                   0.0151658      -0.0347115         0.237107        0.961717         0.237107        0.961717        0.0297635       0.0232701
1.37                   0.0140843      -0.0361211         0.271963        0.952345         0.271963        0.952345        0.0312112       0.0228274
1.38                   0.0129091      -0.0374719         0.306449        0.941711         0.306449        0.941711        0.0326411        0.022296
1.39                   0.0116445      -0.0387574         0.340521         0.92983         0.340521         0.92983        0.0340478       0.0216765
1.4                    0.0102955      -0.0399714         0.374134        0.916717         0.374134        0.916717        0.0354262       0.0209693
1.41                  0.00886744      -0.0411082         0.407242        0.902391         0.407242        0.902391        0.0367707       0.0201755
1.42                  0.00736601      -0.0421624         0.439802        0.886871         0.439802        0.886871        0.0380761       0.0192963
1.43                  0.00579743       -0.043129         0.471772        0.870178         0.471772        0.870178        0.0393371       0.0183333
1.44                  0.00416803      -0.0440036         0.503109        0.852334         0.503109        0.852334        0.0405482       0.0172884
1.45                  0.00248473      -0.0447822         0.533772        0.833364         0.533772        0.833364        0.0417043        0.016164
1.46                 0.000754435      -0.0454612         0.563721        0.813293         0.563721        0.813293        0.0428001       0.0149626
1.47                 -0.00101548      -0.0460377         0.592916        0.792148         0.592916        0.792148        0.0438307        0.013687
1.48                 -0.00281763      -0.0465092         0.621319        0.769958         0.621319        0.769958         0.044791       0.0123406
1.49                 -0.00464432       -0.046874         0.648892        0.746751         0.648892        0.746751        0.0456761        0.010927
1.5                  -0.00648789      -0.0471305         0.675601        0.722558         0.675601        0.722558        0.0464814      0.00944999
1.51                 -0.00834047      -0.0472781         0.701409        0.697413         0.701409        0.697413        0.0472023      0.00791385
1.52                  -0.0101943      -0.0473165         0.726282        0.671349         0.726282        0.671349        0.0478346      0.00632321
1.53                  -0.0120414      -0.0472462          0.75019        0.644399          0.75019        0.644399        0.0483741      0.00468286
1.54                  -0.0138741      -0.0470681         0.773099        0.616601         0.773099        0.616601        0.0488171      0.00299798
1.55                  -0.0156847      -0.0467837          0.79498         0.58799          0.79498         0.58799        0.0491599      0.00127407
1.56                  -0.0174656      -0.0463951         0.815805        0.558604         0.815805        0.558604        0.0493993    -0.000483193
1.57                  -0.0192095      -0.0459047         0.835546        0.528483         0.835546        0.528483        0.0495322     -0.00226773
1.58                  -0.0209091      -0.0453159         0.854177        0.497666         0.854177        0.497666        0.0495561     -0.00407328
1.59                  -0.0225576      -0.0446322         0.871674        0.466194         0.871674        0.466194        0.0494686     -0.00589336
1.6                   -0.0241482      -0.0438578         0.888015        0.434108         0.888015        0.434108        0.0492679     -0.00772129
1.61                  -0.0256747      -0.0429972         0.903177        0.401452         0.903177        0.401452        0.0489524     -0.00955009
1.62                  -0.0271311      -0.0420556         0.917142        0.368267         0.917142        0.368267         0.048521      -0.0113727
1.63                  -0.0285118      -0.0410383          0.92989        0.334597          0.92989        0.334597         0.047973      -0.0131819
1.64                  -0.0298116      -0.0399514         0.941405        0.300487         0.941405        0.300487        0.0473082      -0.0149704
1.65                  -0.0310259      -0.0388009         0.951672        0.265981         0.951672        0.265981        0.0465268      -0.0167305
1.66                  -0.0321502      -0.0375935         0.960677        0.231126         0.960677        0.231126        0.0456294      -0.0184549
1.67                  -0.0331809      -0.0363359         0.968409        0.195966         0.968409        0.195966        0.0446173      -0.0201359
1.68                  -0.0341147      -0.0350354         0.974856        0.160549         0.974856        0.160549        0.0434921      -0.0217659
1.69                  -0.0349489      -0.0336991         0.980012        0.124921         0.980012        0.124921        0.0422559      -0.0233373
1.7                   -0.0356811      -0.0323346         0.983867       0.0891277         0.983867       0.0891277        0.0409114      -0.0248427
1.71                  -0.0363098      -0.0309495         0.986419       0.0532176         0.986419       0.0532176        0.0394618      -0.0262745
1.72                  -0.0368339      -0.0295516         0.987662       0.0172379         0.987662       0.0172379        0.0379107      -0.0276255
1.73                  -0.0372528      -0.0281486         0.987594       -0.018764         0.987594       -0.018764        0.0362624      -0.0288883
1.74                  -0.0375666      -0.0267484         0.986217      -0.0547414         0.986217      -0.0547414        0.0345215      -0.0300562
1.75                  -0.0377759      -0.0253588         0.983531      -0.0906459         0.983531      -0.0906459        0.0326933      -0.0311222
1.76                  -0.0378819      -0.0239875         0.979539        -0.12643         0.979539        -0.12643        0.0307834      -0.0320798
1.77                  -0.0378862      -0.0226421         0.974246       -0.162047         0.974246       -0.162047         0.028798      -0.0329229
1.78                  -0.0377912        -0.02133          0.96766        -0.19745          0.96766        -0.19745        0.0267438      -0.0336456
1.79                  -0.0375997      -0.0200587         0.959788       -0.232592         0.959788       -0.232592        0.0246278      -0.0342423
1.8                    -0.037315       -0.018835          0.95064       -0.267425          0.95064       -0.267425        0.0224576       -0.034708
1.81                   -0.036941       -0.017666         0.940228       -0.301904         0.940228       -0.301904        0.0202412      -0.0350378
1.82                   -0.036482      -0.0165579         0.928565       -0.335985         0.928565       -0.335985        0.0179868      -0.0352277
1.83                  -0.0359428      -0.0155171         0.915667       -0.369618         0.915667       -0.369618        0.0157033      -0.0352739
1.84                  -0.0353287      -0.0145494         0.901549       -0.402762         0.901549       -0.402762        0.0133997      -0.0351732
1.85                  -0.0346454      -0.0136601         0.886231        -0.43537         0.886231        -0.43537        0.0110853      -0.0349229
1.86                  -0.0338987      -0.0128542         0.869731       -0.467401         0.869731       -0.467401        0.0087697      -0.0345211
1.87                  -0.0330953      -0.0121363         0.852073       -0.498811         0.852073       -0.498811       0.00646287      -0.0339663
1.88                  -0.0322416      -0.0115104         0.833278       -0.529557         0.833278       -0.529557       0.00417479      -0.0332578
1.89                  -0.0313447      -0.0109802         0.813371       -0.559599         0.813371       -0.559599       0.00191578      -0.0323953
1.9                   -0.0304119      -0.0105485         0.792378       -0.588896         0.792378       -0.588896     -0.000303965      -0.0313794
1.91                  -0.0294505       -0.010218         0.770328       -0.617409         0.770328       -0.617409       -0.0024739      -0.0302115
1.92                  -0.0284682     -0.00999059         0.747248       -0.645098         0.747248       -0.645098      -0.00458368      -0.0288934
1.93                  -0.0274726     -0.00986767         0.723171       -0.671928         0.723171       -0.671928      -0.00662286      -0.0274277
1.94                  -0.0264717     -0.00985008         0.698126       -0.697861         0.698126       -0.697861      -0.00858117      -0.0258179
1.95                  -0.0254731     -0.00993806         0.672148       -0.722861         0.672148       -0.722861       -0.0104483      -0.0240682
1.96                  -0.0244848      -0.0101313         0.645271       -0.746897         0.645271       -0.746897       -0.0122143      -0.0221831
1.97                  -0.0235145      -0.0104289         0.617532       -0.769933         0.617532       -0.769933       -0.0138693      -0.0201685
1.98                    -0.02257      -0.0108294         0.588966        -0.79194         0.588966        -0.79194       -0.0154038      -0.0180304
1.99                  -0.0216589      -0.0113308         0.559613       -0.812887         0.559613       -0.812887       -0.0168086       -0.015776