! TOUCHSTONE file generated by CST DESIGN STUDIO
! Date and time: Wed Oct  5 17:42:57 2022
! Project name: C:\Users\posit\AppData\Local\Temp\CSTDE1\Temp\DE4\Untitled_0.cst
! Tree item: Tasks\SPara1\S-Parameters
! Header version: 2018
! Port assignment regex: !\s*Touchstone port\s*([0-9]+)\s*=\s*(CST MWS port|CST DS port)\s*([0-9]+|Zmin|Zmax)\s*\(\"(.*)\"\)(\s*mode\s*([0-9]+))?.*
! Touchstone port assignment:
! Touchstone port 1 = CST DS port 1 ("")
! Touchstone port 2 = CST DS port 2 ("")
# GHz S RI R 50
0.01                 -0.00101223      0.00150149         0.315273      -0.0230154         0.315273      -0.0230154      -0.00101223      0.00150149
0.02                -0.000799583      0.00298969         0.312719      -0.0459023         0.312719      -0.0459023     -0.000799583      0.00298969
0.03                -0.000449402      0.00445202         0.308504       -0.068539         0.308504       -0.068539     -0.000449402      0.00445202
0.04                 3.51395e-05      0.00587611         0.302652      -0.0908051         0.302652      -0.0908051      3.51395e-05      0.00587611
0.05                 0.000649693      0.00725008         0.295194       -0.112582         0.295194       -0.112582      0.000649693      0.00725008
0.06                  0.00138877       0.0085625         0.286171       -0.133755         0.286171       -0.133755       0.00138877       0.0085625
0.07                  0.00224585      0.00980265         0.275632        -0.15421         0.275632        -0.15421       0.00224585      0.00980265
0.08                  0.00321342       0.0109605         0.263633       -0.173839         0.263633       -0.173839       0.00321342       0.0109605
0.09                  0.00428307        0.012027         0.250238       -0.192539         0.250238       -0.192539       0.00428307        0.012027
0.1                   0.00544566       0.0129939          0.23552       -0.210211          0.23552       -0.210211       0.00544566       0.0129939
0.11                  0.00669133       0.0138539         0.219556        -0.22676         0.219556        -0.22676       0.00669133       0.0138539
0.12                  0.00800971       0.0146009         0.202434       -0.242099         0.202434       -0.242099       0.00800971       0.0146009
0.13                  0.00939001       0.0152299         0.184243       -0.256148         0.184243       -0.256148       0.00939001       0.0152299
0.14                   0.0108211       0.0157369         0.165082       -0.268833         0.165082       -0.268833        0.0108211       0.0157369
0.15                   0.0122916       0.0161192         0.145052       -0.280086         0.145052       -0.280086        0.0122916       0.0161192
0.16                   0.0137904       0.0163749         0.124261       -0.289849         0.124261       -0.289849        0.0137904       0.0163749
0.17                    0.015306       0.0165037         0.102819       -0.298071         0.102819       -0.298071         0.015306       0.0165037
0.18                   0.0168275       0.0165059        0.0808404       -0.304708        0.0808404       -0.304708        0.0168275       0.0165059
0.19                    0.018344       0.0163831        0.0584418       -0.309728        0.0584418       -0.309728         0.018344       0.0163831
0.2                    0.0198451       0.0161378        0.0357423       -0.313103        0.0357423       -0.313103        0.0198451       0.0161378
0.21                    0.021321       0.0157733        0.0128625       -0.314817        0.0128625       -0.314817         0.021321       0.0157733
0.22                   0.0227623        0.015294       -0.0100762       -0.314861       -0.0100762       -0.314861        0.0227623        0.015294
0.23                   0.0241604       0.0147048       -0.0329522       -0.313237       -0.0329522       -0.313237        0.0241604       0.0147048
0.24                   0.0255073       0.0140113       -0.0556444       -0.309953       -0.0556444       -0.309953        0.0255073       0.0140113
0.25                   0.0267957       0.0132196       -0.0780327       -0.305029       -0.0780327       -0.305029        0.0267957       0.0132196
0.26                   0.0280192       0.0123364       -0.0999986        -0.29849       -0.0999986        -0.29849        0.0280192       0.0123364
0.27                   0.0291721       0.0113686        -0.121426       -0.290373        -0.121426       -0.290373        0.0291721       0.0113686
0.28                   0.0302495       0.0103234        -0.142202       -0.280721        -0.142202       -0.280721        0.0302495       0.0103234
0.29                   0.0312475      0.00920829        -0.162217       -0.269586        -0.162217       -0.269586        0.0312475      0.00920829
0.3                    0.0321626      0.00803059        -0.181365       -0.257027        -0.181365       -0.257027        0.0321626      0.00803059
0.31                   0.0329925      0.00679778        -0.199545       -0.243112        -0.199545       -0.243112        0.0329925      0.00679778
0.32                   0.0337352      0.00551721        -0.216662       -0.227915        -0.216662       -0.227915        0.0337352      0.00551721
0.33                   0.0343897      0.00419603        -0.232626       -0.211517        -0.232626       -0.211517        0.0343897      0.00419603
0.34                   0.0349553      0.00284115        -0.247352       -0.194005        -0.247352       -0.194005        0.0349553      0.00284115
0.35                   0.0354322      0.00145925        -0.260764       -0.175472        -0.260764       -0.175472        0.0354322      0.00145925
0.36                   0.0358209     5.66319e-05         -0.27279       -0.156017         -0.27279       -0.156017        0.0358209     5.66319e-05
0.37                   0.0361222     -0.00136074        -0.283369       -0.135743        -0.283369       -0.135743        0.0361222     -0.00136074
0.38                   0.0363376     -0.00278728        -0.292443       -0.114757        -0.292443       -0.114757        0.0363376     -0.00278728
0.39                   0.0364687     -0.00421781        -0.299967      -0.0931707        -0.299967      -0.0931707        0.0364687     -0.00421781
0.4                    0.0365172     -0.00564754        -0.305901      -0.0710982        -0.305901      -0.0710982        0.0365172     -0.00564754
0.41                   0.0364852     -0.00707207        -0.310214      -0.0486564        -0.310214      -0.0486564        0.0364852     -0.00707207
0.42                   0.0363747     -0.00848738        -0.312884      -0.0259642        -0.312884      -0.0259642        0.0363747     -0.00848738
0.43                   0.0361879     -0.00988979        -0.313897     -0.00314137        -0.313897     -0.00314137        0.0361879     -0.00988979
0.44                   0.0359269      -0.0112759        -0.313249       0.0196911        -0.313249       0.0196911        0.0359269      -0.0112759
0.45                   0.0355939      -0.0126427        -0.310943       0.0424127        -0.310943       0.0424127        0.0355939      -0.0126427
0.46                   0.0351909      -0.0139874        -0.306992       0.0649035        -0.306992       0.0649035        0.0351909      -0.0139874
0.47                   0.0347197      -0.0153071        -0.301417       0.0870443        -0.301417       0.0870443        0.0347197      -0.0153071
0.48                   0.0341824      -0.0165996        -0.294249        0.108719        -0.294249        0.108719        0.0341824      -0.0165996
0.49                   0.0335806      -0.0178623        -0.285525        0.129812        -0.285525        0.129812        0.0335806      -0.0178623
0.5                    0.0329158      -0.0190929        -0.275293        0.150212        -0.275293        0.150212        0.0329158      -0.0190929
0.51                   0.0321897      -0.0202891        -0.263606        0.169812        -0.263606        0.169812        0.0321897      -0.0202891
0.52                   0.0314036      -0.0214485        -0.250527        0.188509        -0.250527        0.188509        0.0314036      -0.0214485
0.53                   0.0305589      -0.0225687        -0.236125        0.206203        -0.236125        0.206203        0.0305589      -0.0225687
0.54                   0.0296568       -0.023647        -0.220476        0.222802        -0.220476        0.222802        0.0296568       -0.023647
0.55                   0.0286989      -0.0246808        -0.203665        0.238218        -0.203665        0.238218        0.0286989      -0.0246808
0.56                   0.0276864      -0.0256674        -0.185779        0.252369        -0.185779        0.252369        0.0276864      -0.0256674
0.57                   0.0266208      -0.0266036        -0.166913        0.265182        -0.166913        0.265182        0.0266208      -0.0266036
0.58                   0.0255039      -0.0274864        -0.147168        0.276587        -0.147168        0.276587        0.0255039      -0.0274864
0.59                   0.0243374      -0.0283124        -0.126647        0.286527        -0.126647        0.286527        0.0243374      -0.0283124
0.6                    0.0231235      -0.0290782        -0.105461        0.294947        -0.105461        0.294947        0.0231235      -0.0290782
0.61                   0.0218644      -0.0297803       -0.0837197        0.301804       -0.0837197        0.301804        0.0218644      -0.0297803
0.62                    0.020563      -0.0304149       -0.0615395        0.307062       -0.0615395        0.307062         0.020563      -0.0304149
0.63                   0.0192222      -0.0309785       -0.0390375        0.310693       -0.0390375        0.310693        0.0192222      -0.0309785
0.64                   0.0178456      -0.0314672       -0.0163327        0.312678       -0.0163327        0.312678        0.0178456      -0.0314672
0.65                   0.0164371      -0.0318775       0.00645463        0.313007       0.00645463        0.313007        0.0164371      -0.0318775
0.66                   0.0150011      -0.0322057        0.0292043        0.311678        0.0292043        0.311678        0.0150011      -0.0322057
0.67                   0.0135425      -0.0324486        0.0517954        0.308698        0.0517954        0.308698        0.0135425      -0.0324486
0.68                   0.0120665      -0.0326029        0.0741088        0.304084        0.0741088        0.304084        0.0120665      -0.0326029
0.69                   0.0105791      -0.0326658        0.0960261        0.297859        0.0960261        0.297859        0.0105791      -0.0326658
0.7                   0.00908635      -0.0326348         0.117432        0.290057         0.117432        0.290057       0.00908635      -0.0326348
0.71                  0.00759509       -0.032508         0.138212         0.28072         0.138212         0.28072       0.00759509       -0.032508
0.72                  0.00611237      -0.0322837         0.158257        0.269895         0.158257        0.269895       0.00611237      -0.0322837
0.73                  0.00464565       -0.031961         0.177461        0.257643         0.177461        0.257643       0.00464565       -0.031961
0.74                  0.00320275      -0.0315395         0.195721        0.244026         0.195721        0.244026       0.00320275      -0.0315395
0.75                  0.00179165      -0.0310196         0.212942        0.229117         0.212942        0.229117       0.00179165      -0.0310196
0.76                 0.000420556      -0.0304023         0.229032        0.212995         0.229032        0.212995      0.000420556      -0.0304023
0.77                -0.000902193      -0.0296895         0.243906        0.195746         0.243906        0.195746     -0.000902193      -0.0296895
0.78                 -0.00216828      -0.0288837         0.257485        0.177461         0.257485        0.177461      -0.00216828      -0.0288837
0.79                  -0.0033694      -0.0279885         0.269696        0.158236         0.269696        0.158236       -0.0033694      -0.0279885
0.8                  -0.00449743       -0.027008         0.280475        0.138175         0.280475        0.138175      -0.00449743       -0.027008
0.81                 -0.00554445      -0.0259474         0.289766        0.117383         0.289766        0.117383      -0.00554445      -0.0259474
0.82                 -0.00650289      -0.0248126         0.297517       0.0959699         0.297517       0.0959699      -0.00650289      -0.0248126
0.83                 -0.00736561      -0.0236103          0.30369       0.0740503          0.30369       0.0740503      -0.00736561      -0.0236103
0.84                 -0.00812597      -0.0223479         0.308249       0.0517401         0.308249       0.0517401      -0.00812597      -0.0223479
0.85                 -0.00877793      -0.0210337         0.311172       0.0291577         0.311172       0.0291577      -0.00877793      -0.0210337
0.86                 -0.00931613      -0.0196766         0.312443      0.00642329         0.312443      0.00642329      -0.00931613      -0.0196766
0.87                 -0.00973602      -0.0182861         0.312055      -0.0163426         0.312055      -0.0163426      -0.00973602      -0.0182861
0.88                  -0.0100338      -0.0168721          0.31001      -0.0390189          0.31001      -0.0390189       -0.0100338      -0.0168721
0.89                  -0.0102067      -0.0154452         0.306318      -0.0614852         0.306318      -0.0614852       -0.0102067      -0.0154452
0.9                   -0.0102528      -0.0140163            0.301       -0.083622            0.301       -0.083622       -0.0102528      -0.0140163
0.91                  -0.0101712      -0.0125963         0.294084       -0.105312         0.294084       -0.105312       -0.0101712      -0.0125963
0.92                 -0.00996214      -0.0111966         0.285606       -0.126439         0.285606       -0.126439      -0.00996214      -0.0111966
0.93                 -0.00962676     -0.00982862         0.275611       -0.146891         0.275611       -0.146891      -0.00962676     -0.00982862
0.94                  -0.0091674     -0.00850354         0.264154       -0.166559         0.264154       -0.166559       -0.0091674     -0.00850354
0.95                 -0.00858744     -0.00723252         0.251294       -0.185339         0.251294       -0.185339      -0.00858744     -0.00723252
0.96                 -0.00789133     -0.00602645         0.237101       -0.203131         0.237101       -0.203131      -0.00789133     -0.00602645
0.97                 -0.00708456     -0.00489576          0.22165        -0.21984          0.22165        -0.21984      -0.00708456     -0.00489576
0.98                 -0.00617363     -0.00385048         0.205023       -0.235377         0.205023       -0.235377      -0.00617363     -0.00385048
0.99                 -0.00516599     -0.00289997          0.18731        -0.24966          0.18731        -0.24966      -0.00516599     -0.00289997
1                    -0.00407002     -0.00205297         0.168604       -0.262612         0.168604       -0.262612      -0.00407002     -0.00205297
1.01                 -0.00289487     -0.00131736         0.149005       -0.274165         0.149005       -0.274165      -0.00289487     -0.00131736
1.02                 -0.00165049     -0.00070019         0.128618       -0.284257         0.128618       -0.284257      -0.00165049     -0.00070019
1.03                -0.000347512    -0.000207591         0.107552       -0.292836         0.107552       -0.292836     -0.000347512    -0.000207591
1.04                  0.00100298     0.000155407        0.0859185       -0.299855        0.0859185       -0.299855       0.00100298     0.000155407
1.05                   0.0023893     0.000384737        0.0638337       -0.305277        0.0638337       -0.305277        0.0023893     0.000384737
1.06                  0.00379957     0.000477547         0.041415       -0.309074         0.041415       -0.309074       0.00379957     0.000477547
1.07                  0.00522155     0.000432028        0.0187817       -0.311226        0.0187817       -0.311226       0.00522155     0.000432028
1.08                  0.00664294     0.000247628      -0.00394486       -0.311722      -0.00394486       -0.311722       0.00664294     0.000247628
1.09                   0.0080514    -7.51199e-05       -0.0266437        -0.31056       -0.0266437        -0.31056        0.0080514    -7.51199e-05
1.1                   0.00943482    -0.000534436       -0.0491942       -0.307746       -0.0491942       -0.307746       0.00943482    -0.000534436
1.11                   0.0107812     -0.00112748       -0.0714758       -0.303297       -0.0714758       -0.303297        0.0107812     -0.00112748
1.12                    0.012079     -0.00185024       -0.0933703       -0.297235       -0.0933703       -0.297235         0.012079     -0.00185024
1.13                   0.0133171     -0.00269763        -0.114761       -0.289595        -0.114761       -0.289595        0.0133171     -0.00269763
1.14                    0.014485     -0.00366362        -0.135534       -0.280417        -0.135534       -0.280417         0.014485     -0.00366362
1.15                   0.0155727     -0.00474119        -0.155579       -0.269751        -0.155579       -0.269751        0.0155727     -0.00474119
1.16                   0.0165713     -0.00592243         -0.17479       -0.257654         -0.17479       -0.257654        0.0165713     -0.00592243
1.17                   0.0174725     -0.00719871        -0.193064       -0.244192        -0.193064       -0.244192        0.0174725     -0.00719871
1.18                   0.0182689     -0.00856069        -0.210305       -0.229436        -0.210305       -0.229436        0.0182689     -0.00856069
1.19                   0.0189541     -0.00999845        -0.226421       -0.213466        -0.226421       -0.213466        0.0189541     -0.00999845
1.2                    0.0195229      -0.0115016        -0.241327       -0.196368        -0.241327       -0.196368        0.0195229      -0.0115016
1.21                   0.0199709      -0.0130594        -0.254945       -0.178232        -0.254945       -0.178232        0.0199709      -0.0130594
1.22                    0.020295      -0.0146608        -0.267202       -0.159156        -0.267202       -0.159156         0.020295      -0.0146608
1.23                   0.0204931      -0.0162947        -0.278034       -0.139242        -0.278034       -0.139242        0.0204931      -0.0162947
1.24                   0.0205642        -0.01795        -0.287384       -0.118596        -0.287384       -0.118596        0.0205642        -0.01795
1.25                   0.0205083      -0.0196157        -0.295203      -0.0973283        -0.295203      -0.0973283        0.0205083      -0.0196157
1.26                   0.0203265      -0.0212809        -0.301451      -0.0755523        -0.301451      -0.0755523        0.0203265      -0.0212809
1.27                    0.020021      -0.0229351        -0.306094      -0.0533841        -0.306094      -0.0533841         0.020021      -0.0229351
1.28                   0.0195949      -0.0245683         -0.30911      -0.0309415         -0.30911      -0.0309415        0.0195949      -0.0245683
1.29                    0.019052       -0.026171        -0.310483     -0.00834384        -0.310483     -0.00834384         0.019052       -0.026171
1.3                    0.0183972       -0.027734        -0.310206       0.0142885        -0.310206       0.0142885        0.0183972       -0.027734
1.31                   0.0176358      -0.0292492        -0.308281       0.0368356        -0.308281       0.0368356        0.0176358      -0.0292492
1.32                   0.0167741      -0.0307089        -0.304721       0.0591778        -0.304721       0.0591778        0.0167741      -0.0307089
1.33                   0.0158188      -0.0321064        -0.299544       0.0811963        -0.299544       0.0811963        0.0158188      -0.0321064
1.34                    0.014777      -0.0334358         -0.29278        0.102775         -0.29278        0.102775         0.014777      -0.0334358
1.35                   0.0136561      -0.0346919        -0.284463        0.123798        -0.284463        0.123798        0.0136561      -0.0346919
1.36                   0.0124638      -0.0358705        -0.274641        0.144156        -0.274641        0.144156        0.0124638      -0.0358705
1.37                    0.011208      -0.0369682        -0.263365        0.163741        -0.263365        0.163741         0.011208      -0.0369682
1.38                  0.00989664      -0.0379826        -0.250695        0.182449        -0.250695        0.182449       0.00989664      -0.0379826
1.39                  0.00853734      -0.0389119        -0.236701        0.200181        -0.236701        0.200181       0.00853734      -0.0389119
1.4                   0.00713793      -0.0397553        -0.221456        0.216844        -0.221456        0.216844       0.00713793      -0.0397553
1.41                  0.00570572      -0.0405127        -0.205042         0.23235        -0.205042         0.23235       0.00570572      -0.0405127
1.42                  0.00424776      -0.0411845        -0.187546        0.246617        -0.187546        0.246617       0.00424776      -0.0411845
1.43                  0.00277083       -0.041772        -0.169062         0.25957        -0.169062         0.25957       0.00277083       -0.041772
1.44                  0.00128105      -0.0422768        -0.149688        0.271142        -0.149688        0.271142       0.00128105      -0.0422768
1.45                -0.000215736      -0.0427013        -0.129527        0.281271        -0.129527        0.281271     -0.000215736      -0.0427013
1.46                 -0.00171445      -0.0430478        -0.108686        0.289904        -0.108686        0.289904      -0.00171445      -0.0430478
1.47                 -0.00321039      -0.0433195       -0.0872761        0.296996       -0.0872761        0.296996      -0.00321039      -0.0433195
1.48                 -0.00469957      -0.0435193       -0.0654111         0.30251       -0.0654111         0.30251      -0.00469957      -0.0435193
1.49                 -0.00617845      -0.0436504       -0.0432063        0.306418       -0.0432063        0.306418      -0.00617845      -0.0436504
1.5                  -0.00764419       -0.043716       -0.0207799        0.308699       -0.0207799        0.308699      -0.00764419       -0.043716
1.51                 -0.00909433      -0.0437194       0.00174934        0.309343       0.00174934        0.309343      -0.00909433      -0.0437194
1.52                   -0.010527      -0.0436636        0.0242619        0.308345        0.0242619        0.308345        -0.010527      -0.0436636
1.53                  -0.0119409      -0.0435513        0.0466386        0.305712        0.0466386        0.305712       -0.0119409      -0.0435513
1.54                  -0.0133347      -0.0433854        0.0687609        0.301458        0.0687609        0.301458       -0.0133347      -0.0433854
1.55                  -0.0147078      -0.0431678        0.0905118        0.295607        0.0905118        0.295607       -0.0147078      -0.0431678
1.56                  -0.0160597      -0.0429007         0.111776        0.288189         0.111776        0.288189       -0.0160597      -0.0429007
1.57                    -0.01739      -0.0425855         0.132442        0.279245         0.132442        0.279245         -0.01739      -0.0425855
1.58                  -0.0186985      -0.0422234         0.152399        0.268823         0.152399        0.268823       -0.0186985      -0.0422234
1.59                  -0.0199849       -0.041815         0.171542        0.256977         0.171542        0.256977       -0.0199849       -0.041815
1.6                   -0.0212488      -0.0413609          0.18977        0.243772          0.18977        0.243772       -0.0212488      -0.0413609
1.61                  -0.0224897      -0.0408609         0.206986        0.229277         0.206986        0.229277       -0.0224897      -0.0408609
1.62                  -0.0237068      -0.0403148           0.2231         0.21357           0.2231         0.21357       -0.0237068      -0.0403148
1.63                   -0.024899      -0.0397219         0.238027        0.196733         0.238027        0.196733        -0.024899      -0.0397219
1.64                  -0.0260648      -0.0390816         0.251687        0.178857         0.251687        0.178857       -0.0260648      -0.0390816
1.65                  -0.0272023      -0.0383928          0.26401        0.160037          0.26401        0.160037       -0.0272023      -0.0383928
1.66                  -0.0283091      -0.0376545         0.274928        0.140371         0.274928        0.140371       -0.0283091      -0.0376545
1.67                  -0.0293821       -0.036866         0.284387        0.119965         0.284387        0.119965       -0.0293821       -0.036866
1.68                   -0.030418      -0.0360264         0.292334       0.0989272         0.292334       0.0989272        -0.030418      -0.0360264
1.69                  -0.0314128      -0.0351351         0.298729       0.0773681         0.298729       0.0773681       -0.0314128      -0.0351351
1.7                   -0.0323621      -0.0341922         0.303537       0.0554026         0.303537       0.0554026       -0.0323621      -0.0341922
1.71                  -0.0332608      -0.0331977         0.306734       0.0331469         0.306734       0.0331469       -0.0332608      -0.0331977
1.72                  -0.0341036      -0.0321526         0.308303        0.010719         0.308303        0.010719       -0.0341036      -0.0321526
1.73                  -0.0348848      -0.0310582         0.308236      -0.0117623         0.308236      -0.0117623       -0.0348848      -0.0310582
1.74                  -0.0355983      -0.0299169         0.306532      -0.0341783         0.306532      -0.0341783       -0.0355983      -0.0299169
1.75                   -0.036238      -0.0287315         0.303202      -0.0564099         0.303202      -0.0564099        -0.036238      -0.0287315
1.76                  -0.0367976       -0.027506         0.298263      -0.0783394         0.298263      -0.0783394       -0.0367976       -0.027506
1.77                  -0.0372709       -0.026245          0.29174      -0.0998507          0.29174      -0.0998507       -0.0372709       -0.026245
1.78                  -0.0376519      -0.0249542         0.283669        -0.12083         0.283669        -0.12083       -0.0376519      -0.0249542
1.79                  -0.0379348      -0.0236404         0.274092       -0.141166         0.274092       -0.141166       -0.0379348      -0.0236404
1.8                   -0.0381143       -0.022311         0.263059       -0.160751         0.263059       -0.160751       -0.0381143       -0.022311
1.81                  -0.0381857      -0.0209746          0.25063        -0.17948          0.25063        -0.17948       -0.0381857      -0.0209746
1.82                  -0.0381451      -0.0196405         0.236868       -0.197256         0.236868       -0.197256       -0.0381451      -0.0196405
1.83                  -0.0379894      -0.0183189         0.221849       -0.213981         0.221849       -0.213981       -0.0379894      -0.0183189
1.84                  -0.0377164      -0.0170206          0.20565        -0.22957          0.20565        -0.22957       -0.0377164      -0.0170206
1.85                  -0.0373252      -0.0157571         0.188357       -0.243936         0.188357       -0.243936       -0.0373252      -0.0157571
1.86                   -0.036816      -0.0145404         0.170063       -0.257006         0.170063       -0.257006        -0.036816      -0.0145404
1.87                  -0.0361904      -0.0133829         0.150863       -0.268707         0.150863       -0.268707       -0.0361904      -0.0133829
1.88                  -0.0354514      -0.0122968          0.13086       -0.278979          0.13086       -0.278979       -0.0354514      -0.0122968
1.89                  -0.0346034      -0.0112947          0.11016       -0.287765          0.11016       -0.287765       -0.0346034      -0.0112947
1.9                   -0.0336523       -0.010389        0.0888716       -0.295018        0.0888716       -0.295018       -0.0336523       -0.010389
1.91                  -0.0326055     -0.00959147        0.0671101       -0.300699        0.0671101       -0.300699       -0.0326055     -0.00959147
1.92                  -0.0314719     -0.00891355          0.04499       -0.304777          0.04499       -0.304777       -0.0314719     -0.00891355
1.93                  -0.0302618     -0.00836584        0.0226296        -0.30723        0.0226296        -0.30723       -0.0302618     -0.00836584
1.94                  -0.0289869     -0.00795802      0.000147895       -0.308044      0.000147895       -0.308044       -0.0289869     -0.00795802
1.95                  -0.0276603      -0.0076986       -0.0223342       -0.307214       -0.0223342       -0.307214       -0.0276603      -0.0076986
1.96                  -0.0262959      -0.0075948       -0.0446978       -0.304744       -0.0446978       -0.304744       -0.0262959      -0.0075948
1.97                  -0.0249091     -0.00765239       -0.0668217       -0.300645       -0.0668217       -0.300645       -0.0249091     -0.00765239
1.98                  -0.0235157      -0.0078755       -0.0885883       -0.294941       -0.0885883       -0.294941       -0.0235157      -0.0078755
1.99                  -0.0221325     -0.00826655         -0.10988        -0.28766         -0.10988        -0.28766       -0.0221325     -0.00826655